t 0.00193228 /NodeList/34/DeviceList/1/$ns3::WifiNetDevice/Phy/State/Tx ns3::WifiMacHeader (MGT_BEACON ToDS=0, FromDS=0, MoreFrag=0, Retry=0, MoreData=0 Duration/ID=0us, DA=ff:ff:ff:ff:ff:ff, SA=00:00:00:00:00:23, BSSID=00:00:00:00:00:23, FragNumber=0, SeqNumber=0) ns3::MgtProbeResponseHeader (ssid=, rates=[*6mbs 9mbs 12mbs 18mbs 24mbs 36mbs 48mbs 54mbs], DSSS Parameter Set= , ERP information=0|0|0, HT Capabilities=0|0|0|0 , HT Operations=0|0|0 , VHT Capabilities= 0|0) ns3::MeshInformationElementVector (